450
CH3HgI | E = -4245.7597 kcal/mol | T = 300.0 K | step 0 properties="charge:velocity:force:energy" Lattice="0.000000 0.000000 0.000000  0.000000 0.000000 0.000000  0.000000 0.000000 0.000000" pbc="T T T"
C         2.430000      4.500000      4.500000   -0.280000   -0.008311    0.000143    0.005465   -1.239555    0.330112   -2.345577     -2.035393
Hg        4.500000      4.500000      4.500000    0.500000    0.000726   -0.000899   -0.003134   11.167266   25.873236    5.839100    -32.578386
I         7.230000      4.500000      4.500000   -0.350000    0.002112   -0.000014   -0.000957    4.305585  -17.889570    9.227496    -21.154599
H         1.800912      5.390139      4.500000    0.150000    0.005324    0.027639    0.028157    3.084552   -5.391460   -4.947595     -0.923605
H         1.800912      4.054930      5.270883    0.150000    0.005271   -0.012174   -0.010478   -2.639626   14.046067    8.457144     -1.205562
H         1.800912      4.054930      3.729117    0.150000   -0.008817   -0.012621    0.003157   -4.934828    1.749632    9.663941     -0.211724
C        11.430000      4.500000      4.500000   -0.280000    0.001108    0.004880    0.003091   -2.749752   -0.752324    5.684249     -1.916234
Hg       13.500000      4.500000      4.500000    0.500000    0.001231   -0.000838   -0.001627  -23.470981   -2.410828   13.025928    -32.755026
I        16.230000      4.500000      4.500000   -0.350000   -0.001607    0.001665    0.001516  -13.525582   -8.009401  -11.717762    -21.365913
H        10.800912      5.390139      4.500000    0.150000    0.007060    0.013766   -0.012333   -6.364873   12.268012  -26.077007     -0.337872
H        10.800912      4.054930      5.270883    0.150000    0.006646   -0.022953   -0.028788    6.721107   16.840063   -3.499825     -1.185584
H        10.800912      4.054930      3.729117    0.150000   -0.046685   -0.032280   -0.006246   -5.423248   -1.342123  -12.949117      0.161063
C        20.430000      4.500000      4.500000   -0.280000    0.004600   -0.003222    0.007883   -6.864629   -7.936142  -19.508133     -2.601073
Hg       22.500000      4.500000      4.500000    0.500000   -0.003081    0.001955    0.001415   12.319596    2.219680    5.547118    -31.003892
I        25.230000      4.500000      4.500000   -0.350000    0.002427    0.000501   -0.001254   25.643644    4.864398    4.675753    -22.137329
H        19.800912      5.390139      4.500000    0.150000    0.033131    0.007082   -0.033804   -3.509649    1.114282   12.183387     -0.866990
H        19.800912      4.054930      5.270883    0.150000    0.032909    0.021644    0.014951   20.738094   -4.972747    4.751129     -0.808173
H        19.800912      4.054930      3.729117    0.150000   -0.009655   -0.009282   -0.010415   -0.513476   -6.468309    2.138215      0.175215
C        29.430000      4.500000      4.500000   -0.280000    0.006066    0.008425   -0.000171    1.256690   21.816457   10.624732     -1.638692
Hg       31.500000      4.500000      4.500000    0.500000   -0.000723    0.001727   -0.000254   -1.567287    7.441331   -8.072030    -31.177699
I        34.230000      4.500000      4.500000   -0.350000    0.000020   -0.000024   -0.000745   -6.382823   19.020744   -7.931158    -21.724507
H        28.800912      5.390139      4.500000    0.150000    0.009815    0.007488   -0.014327    2.091634   -1.127170    0.062309     -1.317137
H        28.800912      4.054930      5.270883    0.150000   -0.008362   -0.031710    0.000242   -0.575149  -23.620031  -10.055329     -0.798122
H        28.800912      4.054930      3.729117    0.150000    0.007915   -0.016577    0.014956   -0.707970   17.424103   20.923588     -0.417104
C        38.430000      4.500000      4.500000   -0.280000   -0.002985   -0.001093    0.003953  -10.815697   -0.287266    3.744301     -3.112084
Hg       40.500000      4.500000      4.500000    0.500000    0.000597   -0.000998   -0.004006   -3.117394   -3.455808    0.999414    -31.246260
I        43.230000      4.500000      4.500000   -0.350000   -0.000177   -0.000355    0.002634    6.345648    8.651945   -2.215250    -21.899791
H        37.800912      5.390139      4.500000    0.150000   -0.002878   -0.027812    0.005021   10.728624  -11.606794   -8.927655     -0.325687
H        37.800912      4.054930      5.270883    0.150000    0.033375   -0.003617   -0.055130  -15.475336    4.795393    7.601109     -0.811955
H        37.800912      4.054930      3.729117    0.150000   -0.003155    0.010363    0.047676    0.588165    3.749870    2.792467     -0.702116
C         2.430000     13.500000      4.500000   -0.280000    0.002756    0.003665    0.003295    0.595547   21.668974  -11.449605     -1.825321
Hg        4.500000     13.500000      4.500000    0.500000    0.000799   -0.004038    0.003384   24.673759   -0.300505  -12.630976    -32.884334
I         7.230000     13.500000      4.500000   -0.350000   -0.000250   -0.002316   -0.000318   19.143136    3.779616    6.151581    -21.892605
H         1.800912     14.390139      4.500000    0.150000    0.024116    0.010372   -0.003632   -8.756629   -5.709507  -10.554172     -0.041426
H         1.800912     13.054930      5.270883    0.150000   -0.035147   -0.003435   -0.010308    1.780755   -5.961104   20.682141     -1.121634
H         1.800912     13.054930      3.729117    0.150000   -0.007029   -0.016137    0.031114    2.797409    1.128594   -0.557459      0.385925
C        11.430000     13.500000      4.500000   -0.280000    0.007929   -0.005203    0.000773    9.079867   -1.654429    6.419008     -1.570974
Hg       13.500000     13.500000      4.500000    0.500000   -0.000465    0.000691   -0.000746    5.121950   13.303265   -7.431029    -31.123041
I        16.230000     13.500000      4.500000   -0.350000    0.001843   -0.002014    0.001800  -16.172191    6.423733   -7.943306    -21.835977
H        10.800912     14.390139      4.500000    0.150000   -0.037952   -0.024551    0.039050  -13.264619    0.561734    4.494011     -0.315748
H        10.800912     13.054930      5.270883    0.150000   -0.016253    0.006426   -0.000881    6.290547    0.202022    0.096595     -0.832803
H        10.800912     13.054930      3.729117    0.150000    0.007723    0.017313   -0.012566   11.564743    1.502118   18.017160     -0.748628
C        20.430000     13.500000      4.500000   -0.280000   -0.012367    0.007917   -0.001365  -10.618646   -7.934709    8.064283     -2.264588
Hg       22.500000     13.500000      4.500000    0.500000   -0.001311    0.000827    0.001049   14.189692   12.025595  -19.994584    -32.812921
I        25.230000     13.500000      4.500000   -0.350000   -0.003377   -0.001230   -0.002006   -2.921701   -4.886279  -22.325576    -21.462338
H        19.800912     14.390139      4.500000    0.150000   -0.023825   -0.001485   -0.010716  -24.759619   -6.169392  -10.408103     -1.369597
H        19.800912     13.054930      5.270883    0.150000    0.016110    0.009973    0.000035   -8.721665  -11.866179  -12.788627      0.366389
H        19.800912     13.054930      3.729117    0.150000    0.006499    0.022910   -0.001828   -4.074740    4.165159    4.312986     -0.192694
C        29.430000     13.500000      4.500000   -0.280000    0.002522    0.005094   -0.006360   -9.790249    7.772974   -4.459517     -1.840078
Hg       31.500000     13.500000      4.500000    0.500000    0.001830   -0.000379   -0.000860   13.834192   -2.512914    9.015916    -32.410157
I        34.230000     13.500000      4.500000   -0.350000   -0.000442    0.001080    0.001223    6.997586    5.903941   -4.851449    -21.261901
H        28.800912     14.390139      4.500000    0.150000    0.012360   -0.018018    0.002488   -4.745594    2.790962    1.464868     -0.120337
H        28.800912     13.054930      5.270883    0.150000   -0.032026    0.047607   -0.005435   11.078432   21.628199    3.077689      0.345143
H        28.800912     13.054930      3.729117    0.150000    0.025745   -0.011172   -0.006828   -1.512764  -19.032920   -0.686453      0.254703
C        38.430000     13.500000      4.500000   -0.280000    0.001887   -0.001323    0.004264   -0.370527    1.283009   -5.122122     -1.465933
Hg       40.500000     13.500000      4.500000    0.500000   -0.003021    0.001860   -0.001216    7.705131  -24.858380    4.180323    -31.128678
I        43.230000     13.500000      4.500000   -0.350000    0.002225   -0.001222    0.000361   12.021294   19.451862   -1.174806    -21.965313
H        37.800912     14.390139      4.500000    0.150000   -0.009405   -0.009314    0.013291    0.046744   19.819203  -10.774891      0.174744
H        37.800912     13.054930      5.270883    0.150000    0.008321   -0.007808   -0.010832   -0.443023    4.930616   -0.956160     -0.000760
H        37.800912     13.054930      3.729117    0.150000   -0.017575    0.004266    0.012040    4.600596    8.669467   -4.041262      0.263588
C         2.430000     22.500000      4.500000   -0.280000   -0.001520    0.007927    0.006300   -0.294098   -8.211376    1.807204     -1.772217
Hg        4.500000     22.500000      4.500000    0.500000    0.000311    0.000964    0.003485  -12.777162   18.136380   10.593847    -31.495095
I         7.230000     22.500000      4.500000   -0.350000   -0.000464    0.003843   -0.000353   13.507677    4.064914  -11.852869    -21.705491
H         1.800912     23.390139      4.500000    0.150000    0.026791   -0.018008   -0.013729   -6.517728    4.045035    3.568830     -1.386841
H         1.800912     22.054930      5.270883    0.150000    0.007577    0.013213    0.002428    4.275694    2.779393  -11.316248     -0.260771
H         1.800912     22.054930      3.729117    0.150000    0.005970   -0.029805   -0.049380    2.089794   -2.374666   -5.349330     -0.208148
C        11.430000     22.500000      4.500000   -0.280000   -0.008541   -0.001284   -0.009029    5.670527  -17.409574  -16.940373     -2.700468
Hg       13.500000     22.500000      4.500000    0.500000    0.001387   -0.001916    0.001969   17.382411    8.439042   11.451119    -32.170016
I        16.230000     22.500000      4.500000   -0.350000    0.001724    0.001489   -0.000232    8.758276    3.817738    0.033344    -20.804260
H        10.800912     23.390139      4.500000    0.150000   -0.017818    0.019663    0.002621   -0.737650   -4.361371  -17.146604     -1.212604
H        10.800912     22.054930      5.270883    0.150000   -0.009238   -0.001039    0.001950   -7.826821   -8.411368   -4.957468     -1.259674
H        10.800912     22.054930      3.729117    0.150000   -0.006039   -0.018978    0.059156  -11.673869    4.563097   -4.971314     -0.102522
C        20.430000     22.500000      4.500000   -0.280000   -0.006497   -0.004550    0.006303  -15.237358  -18.743725    0.925678     -3.373751
Hg       22.500000     22.500000      4.500000    0.500000    0.000026    0.000351   -0.001450    0.579922    5.752983   -3.465380    -31.316886
I        25.230000     22.500000      4.500000   -0.350000   -0.001192    0.004022   -0.000929   24.512723    1.758094    3.949481    -20.723678
H        19.800912     23.390139      4.500000    0.150000    0.015766    0.006322   -0.027647   -3.597054   -9.891513   -0.194990     -1.195123
H        19.800912     22.054930      5.270883    0.150000    0.010916    0.029769   -0.025640   13.359216   13.418900  -21.540467     -1.388807
H        19.800912     22.054930      3.729117    0.150000    0.043424    0.012652   -0.000832   -1.219428   -1.706465   -1.388221     -0.706733
C        29.430000     22.500000      4.500000   -0.280000   -0.006064   -0.008178    0.006773    0.550731    4.378608    1.013941     -2.150732
Hg       31.500000     22.500000      4.500000    0.500000   -0.000559    0.000403    0.002130   -3.915671   12.838665  -26.720755    -32.508432
I        34.230000     22.500000      4.500000   -0.350000   -0.001753   -0.001682    0.003441    3.360106   17.104285    4.671069    -22.180201
H        28.800912     23.390139      4.500000    0.150000    0.013753   -0.031510    0.024582    8.636704   10.806833   -6.136845     -0.552823
H        28.800912     22.054930      5.270883    0.150000   -0.019614   -0.032315    0.019498    9.128148  -11.081462  -20.246632     -0.443074
H        28.800912     22.054930      3.729117    0.150000    0.012051   -0.022938    0.000489    7.312785   -8.438077   -7.935703     -1.375628
C        38.430000     22.500000      4.500000   -0.280000    0.005075   -0.003122   -0.000429   -4.454067   -2.480378    3.760670     -1.840352
Hg       40.500000     22.500000      4.500000    0.500000   -0.000469   -0.000286   -0.001008    5.028296    0.109665    4.417639    -31.611732
I        43.230000     22.500000      4.500000   -0.350000   -0.002144   -0.001642    0.000165    3.900199   -0.925018    8.575101    -21.372969
H        37.800912     23.390139      4.500000    0.150000    0.019489    0.015691   -0.006787  -15.437883    2.537173   25.242974     -0.492969
H        37.800912     22.054930      5.270883    0.150000   -0.004942   -0.033596   -0.046187    8.293831   -1.910607   -0.539342     -0.953277
H        37.800912     22.054930      3.729117    0.150000    0.016970    0.007215    0.006591   -6.326651   -3.533336    3.733604     -1.024201
C         2.430000     31.500000      4.500000   -0.280000   -0.006471    0.003347   -0.003967   -3.445001  -17.664628    1.284821     -1.400684
Hg        4.500000     31.500000      4.500000    0.500000    0.000019    0.000787    0.001400    4.673668   -1.227630   -5.641113    -32.641049
I         7.230000     31.500000      4.500000   -0.350000   -0.002438    0.000656    0.001193    9.099088   -6.223199   -6.079905    -21.289963
H         1.800912     32.390139      4.500000    0.150000   -0.007774   -0.004373   -0.001411   -0.279115   -2.355638    9.195075     -0.782114
H         1.800912     31.054930      5.270883    0.150000   -0.004602   -0.014642    0.014721    4.725296   -3.445199  -25.720035     -0.716254
H         1.800912     31.054930      3.729117    0.150000    0.001932    0.011077   -0.016785   12.768442  -13.832798  -10.850680     -1.168281
C        11.430000     31.500000      4.500000   -0.280000    0.003321   -0.005168   -0.009902    1.852865  -23.832935   15.123534     -2.526691
Hg       13.500000     31.500000      4.500000    0.500000    0.001997   -0.002567   -0.000398    4.705798  -20.947939   11.802597    -32.613048
I        16.230000     31.500000      4.500000   -0.350000   -0.000439   -0.000077    0.001554   -1.955576    1.186300   11.193760    -20.962796
H        10.800912     32.390139      4.500000    0.150000    0.011772    0.012544    0.011896  -11.319206   25.311728   -4.350651     -1.319223
H        10.800912     31.054930      5.270883    0.150000    0.008432   -0.003220    0.001692   -1.152105  -12.787525    5.590198      0.544947
H        10.800912     31.054930      3.729117    0.150000    0.025863   -0.006759   -0.009681    1.978537  -16.739074    0.049225      0.582817
C        20.430000     31.500000      4.500000   -0.280000   -0.011162   -0.007531    0.012365  -23.731033  -11.483246   10.111034     -2.205139
Hg       22.500000     31.500000      4.500000    0.500000    0.001864   -0.002987    0.002547   -4.173169  -16.715161  -17.681052    -32.958989
I        25.230000     31.500000      4.500000   -0.350000    0.002109   -0.001693    0.001940   -8.508549   14.921334   16.277050    -20.635120
H        19.800912     32.390139      4.500000    0.150000   -0.020055   -0.039566    0.020460  -13.127048   -5.335277   10.548518     -1.152357
H        19.800912     31.054930      5.270883    0.150000    0.013836    0.000387   -0.021570   -5.675371   16.741050  -15.502046      0.275664
H        19.800912     31.054930      3.729117    0.150000    0.013574    0.034044    0.043984  -13.052272  -14.547715   16.955065     -0.519067
C        29.430000     31.500000      4.500000   -0.280000    0.003733   -0.006069    0.003166   17.764701   15.006542   11.663119     -1.930019
Hg       31.500000     31.500000      4.500000    0.500000   -0.001425   -0.000631   -0.000536   -6.831557  -12.791151  -16.149277    -32.826097
I        34.230000     31.500000      4.500000   -0.350000   -0.001944   -0.000045   -0.002278   16.107641  -12.355019   -9.896986    -20.589493
H        28.800912     32.390139      4.500000    0.150000   -0.003297   -0.018926   -0.010025    3.781877    4.723402    1.469641      0.289525
H        28.800912     31.054930      5.270883    0.150000   -0.016159   -0.028527   -0.001633   -5.662161    1.686562    5.786804      0.577343
H        28.800912     31.054930      3.729117    0.150000   -0.001748   -0.014013   -0.010424   -4.781222   -3.551850   -7.688442     -0.086284
C        38.430000     31.500000      4.500000   -0.280000   -0.013393    0.000618   -0.008595  -15.400266   -4.610409   -8.041839     -2.210300
Hg       40.500000     31.500000      4.500000    0.500000   -0.000540    0.002045    0.000701   -7.065380   -4.513146   -3.618065    -32.376861
I        43.230000     31.500000      4.500000   -0.350000    0.002626   -0.000066   -0.000136    5.851756  -13.166489    6.652919    -20.347523
H        37.800912     32.390139      4.500000    0.150000    0.012738    0.003800    0.035488    1.751830    6.809515  -16.775220      0.519739
H        37.800912     31.054930      5.270883    0.150000   -0.029248   -0.004023    0.024713    0.311689   -0.997891   -3.488537     -0.181686
H        37.800912     31.054930      3.729117    0.150000    0.007422   -0.025745   -0.018181  -13.291980   11.979644   -9.307449      0.143815
C         2.430000     40.500000      4.500000   -0.280000   -0.001522   -0.001841    0.002285    2.966981    5.809797    3.939545     -2.686402
Hg        4.500000     40.500000      4.500000    0.500000    0.001884    0.000343   -0.001787   -4.025271    7.584205    6.959232    -31.235324
I         7.230000     40.500000      4.500000   -0.350000   -0.002388   -0.001506   -0.001361  -11.865879   23.865926    0.447550    -20.327239
H         1.800912     41.390139      4.500000    0.150000    0.002069   -0.018815   -0.003894  -10.743923  -25.679732   11.176072     -1.154182
H         1.800912     40.054930      5.270883    0.150000   -0.001059   -0.012647   -0.017255    4.140236   -5.008742    7.888929     -0.467130
H         1.800912     40.054930      3.729117    0.150000    0.031178    0.005338   -0.028195  -21.567368   -6.507102    1.221965     -1.276813
C        11.430000     40.500000      4.500000   -0.280000    0.005238   -0.006859    0.002068   10.878563  -14.580903    9.207450     -3.386303
Hg       13.500000     40.500000      4.500000    0.500000    0.000123    0.000304    0.002373   19.969675   -6.028726   12.234743    -32.979065
I        16.230000     40.500000      4.500000   -0.350000    0.001022   -0.002419   -0.001181    9.155754  -21.881447    4.001472    -20.234467
H        10.800912     41.390139      4.500000    0.150000    0.016360    0.023457   -0.007913  -18.348568    2.250434   -6.168560      0.484543
H        10.800912     40.054930      5.270883    0.150000    0.029877    0.012513    0.004270   21.105798   -9.998206    6.659967     -0.388575
H        10.800912     40.054930      3.729117    0.150000    0.008894   -0.020114   -0.007141  -12.293941   14.756483   13.421166     -0.446376
C        20.430000     40.500000      4.500000   -0.280000   -0.000797    0.004926   -0.006237    5.158121    5.534776    9.972335     -1.949125
Hg       22.500000     40.500000      4.500000    0.500000    0.000243   -0.000294    0.001613   12.329537    5.165594  -12.706705    -32.168356
I        25.230000     40.500000      4.500000   -0.350000   -0.000057    0.000623    0.001050   -0.064998   -3.385094   -3.044330    -21.222156
H        19.800912     41.390139      4.500000    0.150000   -0.001092    0.029608   -0.016140   12.040772   -3.921429  -10.186396     -1.240559
H        19.800912     40.054930      5.270883    0.150000   -0.014407    0.006006    0.017493    5.760857    9.276215   16.235856     -1.180246
H        19.800912     40.054930      3.729117    0.150000    0.022352    0.009534   -0.008099   -1.586448   -2.376891    4.595896     -0.137997
C        29.430000     40.500000      4.500000   -0.280000    0.003272   -0.001921   -0.004398  -16.605306    7.057535    0.700094     -2.888773
Hg       31.500000     40.500000      4.500000    0.500000   -0.000213    0.000867   -0.000112    0.597280   -1.608975    2.632306    -32.430223
I        34.230000     40.500000      4.500000   -0.350000   -0.001173   -0.002008    0.000921   10.186060    3.350013   -7.509407    -22.198114
H        28.800912     41.390139      4.500000    0.150000    0.009394   -0.016599    0.014706    1.197832  -11.508810    2.090834     -1.055363
H        28.800912     40.054930      5.270883    0.150000   -0.004921   -0.009941   -0.007758   -6.853467   -8.777787   -0.458868     -0.756398
H        28.800912     40.054930      3.729117    0.150000   -0.006821   -0.003726   -0.009984  -15.270406   -3.200706    5.314469     -0.133598
C        38.430000     40.500000      4.500000   -0.280000    0.007002    0.007739   -0.000141  -18.203963  -17.761535    4.871933     -1.489122
Hg       40.500000     40.500000      4.500000    0.500000   -0.000766    0.000788    0.001752  -13.704225   -3.437004   11.083194    -31.008752
I        43.230000     40.500000      4.500000   -0.350000   -0.002391    0.001232   -0.001525   -3.231759    0.962739   -1.418422    -21.846182
H        37.800912     41.390139      4.500000    0.150000    0.029055   -0.009392   -0.002787   -9.278269   -5.961433    7.289104     -0.924686
H        37.800912     40.054930      5.270883    0.150000    0.002130    0.024704    0.024156   12.780485   -9.421769   -0.484297     -0.381915
H        37.800912     40.054930      3.729117    0.150000    0.000662   -0.022443   -0.000888  -12.252099   13.211427   14.933066      0.541810
C         2.430000      4.500000     13.500000   -0.280000    0.006470   -0.000617   -0.005554    0.511699   -1.327632    4.988551     -2.295380
Hg        4.500000      4.500000     13.500000    0.500000   -0.001599   -0.001430    0.001849  -18.205893   -3.663602  -12.589397    -31.987563
I         7.230000      4.500000     13.500000   -0.350000    0.001849   -0.003227    0.001555   14.359191   22.175179  -10.415059    -20.490290
H         1.800912      5.390139     13.500000    0.150000    0.001835    0.018031    0.001719   25.767272    7.070612  -12.229785     -0.945873
H         1.800912      4.054930     14.270883    0.150000   -0.009820   -0.006685    0.015352   11.433504    2.049180  -13.170844     -0.848360
H         1.800912      4.054930     12.729117    0.150000   -0.000415   -0.028939   -0.029264   -1.586487   23.188823   11.388250     -0.077939
C        11.430000      4.500000     13.500000   -0.280000    0.000196    0.006987    0.006215   -6.997852  -10.744457    1.524836     -2.289277
Hg       13.500000      4.500000     13.500000    0.500000    0.000499   -0.002171    0.000430   -6.644419   -0.266865    3.132571    -31.498443
I        16.230000      4.500000     13.500000   -0.350000    0.001323    0.000452    0.000218    2.868061    9.915570    6.545629    -21.157950
H        10.800912      5.390139     13.500000    0.150000   -0.004917   -0.004941   -0.001853    9.304106   11.100424   19.283195      0.351847
H        10.800912      4.054930     14.270883    0.150000   -0.051446   -0.015330    0.028725   -3.537266    5.084871   10.099142      0.043592
H        10.800912      4.054930     12.729117    0.150000   -0.015668    0.021070    0.014547  -12.044954   18.802791   -3.580541     -0.691216
C        20.430000      4.500000     13.500000   -0.280000    0.006658   -0.008218   -0.003725   -6.357128    7.936028   -0.443279     -1.744535
Hg       22.500000      4.500000     13.500000    0.500000   -0.001055   -0.001350    0.000504   -0.094962   23.727468    8.262510    -32.470508
I        25.230000      4.500000     13.500000   -0.350000    0.000272   -0.002483    0.000871   -8.545837    3.686677  -15.213829    -20.955305
H        19.800912      5.390139     13.500000    0.150000   -0.022178   -0.007413    0.042675   -1.834372   -9.884635  -16.804179      0.495882
H        19.800912      4.054930     14.270883    0.150000    0.038780   -0.018014    0.010139   -0.835189    3.794877    6.733410     -0.841078
H        19.800912      4.054930     12.729117    0.150000   -0.003502    0.028834    0.040342    0.770251  -13.127004   -2.268049     -0.545199
C        29.430000      4.500000     13.500000   -0.280000    0.000460   -0.005276    0.004080  -10.154699   22.809288   -4.951792     -3.024107
Hg       31.500000      4.500000     13.500000    0.500000    0.001048   -0.000624    0.000349  -22.494932   -1.131959   -4.168800    -31.866962
I        34.230000      4.500000     13.500000   -0.350000   -0.000851    0.001177    0.001697   -3.675956    1.452138   -2.192638    -22.132273
H        28.800912      5.390139     13.500000    0.150000   -0.008618    0.020180    0.020437  -19.584670  -11.039387   -8.424334     -0.054949
H        28.800912      4.054930     14.270883    0.150000   -0.008512   -0.012020   -0.012295   -2.553064   -7.056595  -22.567867     -0.430901
H        28.800912      4.054930     12.729117    0.150000    0.012419    0.053731    0.019618    4.087316  -23.009311  -17.416110     -1.085960
C        38.430000      4.500000     13.500000   -0.280000   -0.002655   -0.000745    0.002603   12.212162  -19.510081  -15.131459     -3.013382
Hg       40.500000      4.500000     13.500000    0.500000   -0.000639   -0.000206    0.000794    0.811664   -7.581805   -3.290546    -32.560280
I        43.230000      4.500000     13.500000   -0.350000   -0.001137   -0.002113    0.001597    2.059077   -7.224365   20.028028    -21.412240
H        37.800912      5.390139     13.500000    0.150000    0.004370    0.008723   -0.013145  -12.285613   10.421681   13.917995     -0.923124
H        37.800912      4.054930     14.270883    0.150000   -0.046921   -0.018717    0.013353   -1.212814    8.524517   -1.038802     -0.686674
H        37.800912      4.054930     12.729117    0.150000    0.039209   -0.007539    0.004743   -1.475359   -7.420949    1.439813     -1.200554
C         2.430000     13.500000     13.500000   -0.280000    0.008853   -0.001661   -0.000318    6.812165   17.170502   11.495298     -1.451253
Hg        4.500000     13.500000     13.500000    0.500000   -0.000402   -0.002246   -0.000338   12.081808    3.123484   12.800335    -32.026745
I         7.230000     13.500000     13.500000   -0.350000    0.000967   -0.000216   -0.000786   12.260502  -11.779885   -5.682407    -20.323407
H         1.800912     14.390139     13.500000    0.150000    0.011737   -0.013116   -0.002184   12.772486   -8.162179   -7.839988     -0.385252
H         1.800912     13.054930     14.270883    0.150000    0.000565   -0.026221    0.030113   -5.038706   -8.839389    2.707128     -1.250462
H         1.800912     13.054930     12.729117    0.150000    0.004997   -0.003724   -0.011036  -19.522766   -8.073529    1.831865     -1.344346
C        11.430000     13.500000     13.500000   -0.280000   -0.000547   -0.015884    0.001401    4.843243   -3.170158   -5.524394     -2.953856
Hg       13.500000     13.500000     13.500000    0.500000   -0.001739    0.000336    0.001180   -6.371095   -8.518018    2.363884    -32.512027
I        16.230000     13.500000     13.500000   -0.350000   -0.002843    0.000905    0.000435    4.854935   -2.778495    0.224788    -21.002386
H        10.800912     14.390139     13.500000    0.150000    0.003995   -0.006681   -0.008068   -1.536151    6.276295   -8.451026     -0.793953
H        10.800912     13.054930     14.270883    0.150000   -0.015409    0.004189   -0.020178    2.182059   -0.735033   -3.373464     -1.135537
H        10.800912     13.054930     12.729117    0.150000    0.009493   -0.007410    0.000853    3.150140   18.598121   11.153838      0.430163
C        20.430000     13.500000     13.500000   -0.280000   -0.000505    0.007543    0.011246   -2.976441   17.139725  -18.601512     -2.356282
Hg       22.500000     13.500000     13.500000    0.500000   -0.000538   -0.000741   -0.002017  -18.790577    7.787910   -8.810359    -31.122240
I        25.230000     13.500000     13.500000   -0.350000    0.002200   -0.000010    0.001780   10.084037    1.358669   15.309065    -21.539737
H        19.800912     14.390139     13.500000    0.150000    0.012239    0.008106    0.007594    3.427610    7.852736  -27.801822      0.276961
H        19.800912     13.054930     14.270883    0.150000   -0.011321   -0.009355    0.017037   -2.742847   16.182431  -18.105618     -1.014273
H        19.800912     13.054930     12.729117    0.150000    0.037641    0.012211    0.002530    6.660089    2.812662   -2.435181     -0.743820
C        29.430000     13.500000     13.500000   -0.280000   -0.004170    0.001073   -0.002276   29.441764    3.071897   -4.310277     -3.123171
Hg       31.500000     13.500000     13.500000    0.500000    0.000376   -0.000947   -0.002450  -13.331334   -2.485476   -1.067913    -31.476049
I        34.230000     13.500000     13.500000   -0.350000    0.000448   -0.001474   -0.001752    3.020651  -10.675029    8.069001    -22.142186
H        28.800912     14.390139     13.500000    0.150000    0.015427    0.006750   -0.043239   14.271985    8.186088    3.990749      0.135242
H        28.800912     13.054930     14.270883    0.150000    0.011425    0.008022    0.014793   -1.485628   -5.157295   -4.477211     -0.830225
H        28.800912     13.054930     12.729117    0.150000   -0.013634   -0.003822   -0.026605   -1.299542   -2.021764   -1.640625     -0.402923
C        38.430000     13.500000     13.500000   -0.280000   -0.005859   -0.003440   -0.006141    3.900775    4.033013   12.128597     -1.635596