450
OsO4 | E = -44119.5448 kcal/mol | T = 300.0 K | step 0 properties="charge:velocity:force:energy" Lattice="0.000000 0.000000 0.000000  0.000000 0.000000 0.000000  0.000000 0.000000 0.000000" pbc="T T T"
Os        4.000000      4.000000      4.000000    3.320000   -0.000281   -0.000349   -0.002698    4.903854   -6.543840   13.326283   -253.230059
O         4.987846      4.987846      3.012154   -0.830000    0.004705    0.004413   -0.007810  -18.943297   23.463277   12.952961    -58.792824
O         4.987846      3.012154      4.987846   -0.830000    0.004018    0.002648    0.004859  -23.289061   -0.387649   -5.298517    -59.747718
O         3.012154      4.987846      4.987846   -0.830000   -0.006780    0.003525    0.001432    8.521176  -10.394242    1.697909    -60.891747
O         3.012154      3.012154      3.012154   -0.830000    0.001823    0.004014   -0.000235   22.526482   -7.761655    2.968950    -61.296104
Os       12.000000      4.000000      4.000000    3.320000    0.000589    0.000276    0.002267   16.421807    1.460277    1.389749   -248.491103
O        12.987846      4.987846      3.012154   -0.830000    0.002224   -0.009051    0.001417   -2.121900    1.720659    4.818286    -61.059794
O        12.987846      3.012154      4.987846   -0.830000   -0.008496    0.009272   -0.000507   -5.892940  -12.727645   -1.515845    -59.362213
O        11.012154      4.987846      4.987846   -0.830000    0.008750   -0.001181   -0.002109   14.372524   -7.321678  -11.539592    -59.981744
O        11.012154      3.012154      3.012154   -0.830000   -0.001068    0.000285    0.010050   -0.384946    4.249565   10.844753    -59.340087
Os       20.000000      4.000000      4.000000    3.320000    0.000082    0.000842   -0.000656   -3.339617   14.489602   -7.509335   -251.151849
O        20.987846      4.987846      3.012154   -0.830000   -0.005868    0.005739    0.000099   -4.423076    1.299478   -5.474367    -59.512305
O        20.987846      3.012154      4.987846   -0.830000   -0.003092   -0.000357   -0.004805   -9.724132    4.092771   -9.083856    -58.146161
O        19.012154      4.987846      4.987846   -0.830000    0.009181    0.005300    0.007791   17.288466   13.684781   -6.162442    -58.127915
O        19.012154      3.012154      3.012154   -0.830000   -0.003001    0.004892    0.000624   10.851593  -17.956298   14.659969    -60.442684
Os       28.000000      4.000000      4.000000    3.320000    0.002049   -0.000540    0.001413    1.548731   -3.007557   -3.044033   -252.410564
O        28.987846      4.987846      3.012154   -0.830000    0.001859    0.002286    0.007199    1.002248   -4.810088  -32.452514    -60.163067
O        28.987846      3.012154      4.987846   -0.830000   -0.005827   -0.008292    0.001665   -5.743348   -4.373486   -1.194131    -58.665385
O        27.012154      4.987846      4.987846   -0.830000   -0.001533    0.014290   -0.002356    1.257162   -9.619851  -25.586638    -58.991147
O        27.012154      3.012154      3.012154   -0.830000    0.005405    0.005748   -0.001145  -15.082961   16.997273   14.082977    -58.870800
Os       36.000000      4.000000      4.000000    3.320000    0.000106   -0.000723   -0.001831   -1.226119   -3.350092    6.133952   -253.226416
O        36.987846      4.987846      3.012154   -0.830000    0.005783    0.000226    0.000632  -14.862095   19.870477   22.026170    -60.301558
O        36.987846      3.012154      4.987846   -0.830000   -0.008142    0.008400    0.008476   -0.760983   -5.337137   -1.184180    -58.548583
O        35.012154      4.987846      4.987846   -0.830000   -0.000376   -0.009881   -0.001825   -8.197438   23.214689   13.269555    -61.191624
O        35.012154      3.012154      3.012154   -0.830000   -0.002195    0.005704   -0.000145  -24.298444  -14.204230   18.465931    -59.934940
Os        4.000000     12.000000      4.000000    3.320000   -0.000097   -0.001422    0.000291   -9.301610   15.750940   -4.310542   -248.575197
O         4.987846     12.987846      3.012154   -0.830000    0.007583   -0.006356   -0.005524   14.223587  -28.541759  -13.455059    -59.402487
O         4.987846     11.012154      4.987846   -0.830000   -0.002395   -0.007300   -0.004814   -5.274629   16.106212   -4.133845    -60.558104
O         3.012154     12.987846      4.987846   -0.830000    0.003658   -0.002112    0.007322    5.066919   12.593308  -17.062804    -61.892657
O         3.012154     11.012154      3.012154   -0.830000    0.002175    0.004595    0.002073  -13.103296  -25.346907   10.125185    -60.904192
Os       12.000000     12.000000      4.000000    3.320000   -0.000045    0.000165    0.001714    3.243954  -11.673872  -10.233238   -247.907777
O        12.987846     12.987846      3.012154   -0.830000    0.003235   -0.003735    0.004155   -2.056792  -18.026765    2.112184    -59.039971
O        12.987846     11.012154      4.987846   -0.830000   -0.001177    0.003498    0.008493    7.530865   13.104393    2.809702    -58.902223
O        11.012154     12.987846      4.987846   -0.830000    0.004605   -0.003336    0.004083   -4.655362    3.870782  -18.353865    -60.063359
O        11.012154     11.012154      3.012154   -0.830000    0.003569    0.005473   -0.008506   19.568773  -11.462036  -19.555619    -61.959090
Os       20.000000     12.000000      4.000000    3.320000   -0.000483   -0.000354    0.002271   -0.769337   17.753514   -8.976563   -254.680862
O        20.987846     12.987846      3.012154   -0.830000    0.002535   -0.002374    0.001580    7.791252   -4.216160    0.639492    -60.777980
O        20.987846     11.012154      4.987846   -0.830000    0.006436   -0.005704   -0.005974   13.187258    6.671364  -14.445781    -61.642983
O        19.012154     12.987846      4.987846   -0.830000    0.003635   -0.006637    0.000624    3.771699   -5.465424   -1.310895    -58.480444
O        19.012154     11.012154      3.012154   -0.830000   -0.003090    0.004359   -0.005994    2.583145   18.895404    1.616455    -59.723857
Os       28.000000     12.000000      4.000000    3.320000    0.000075    0.000505   -0.001074    2.199448   -4.929915   -0.835976   -247.361426
O        28.987846     12.987846      3.012154   -0.830000   -0.000083   -0.003233    0.001584    9.054039   27.552025    9.988706    -58.863043
O        28.987846     11.012154      4.987846   -0.830000    0.003320    0.002665    0.005914    2.644827   11.774537   13.141473    -61.621895
O        27.012154     12.987846      4.987846   -0.830000    0.002614    0.000593    0.004237    0.643647    4.578868   17.118178    -60.900066
O        27.012154     11.012154      3.012154   -0.830000    0.005447   -0.009391   -0.000156   14.723305  -15.879734   16.066691    -61.635325
Os       36.000000     12.000000      4.000000    3.320000    0.000287   -0.000248    0.001710   -6.626667    8.723158   -6.048040   -249.082464
O        36.987846     12.987846      3.012154   -0.830000    0.004802    0.001030    0.003712   24.490176    1.435139   -6.173597    -60.595563
O        36.987846     11.012154      4.987846   -0.830000   -0.006740   -0.007011   -0.001020  -18.790444   24.901129   -3.100922    -60.739300
O        35.012154     12.987846      4.987846   -0.830000    0.004176   -0.002775   -0.001050    6.481517  -32.889023   -5.038137    -61.339873
O        35.012154     11.012154      3.012154   -0.830000    0.006820   -0.009787   -0.001039    2.038791  -17.412409  -22.580299    -60.168123
Os        4.000000     20.000000      4.000000    3.320000    0.002797   -0.001524   -0.002159   10.724462    2.531138   -5.955696   -250.213054
O         4.987846     20.987846      3.012154   -0.830000    0.001149    0.002583   -0.002777   -5.378689  -29.661310    6.181752    -59.202548
O         4.987846     19.012154      4.987846   -0.830000    0.005631   -0.000839    0.005387    1.554917    4.887436    2.223097    -59.973846
O         3.012154     20.987846      4.987846   -0.830000    0.001287    0.009369    0.003864   -4.832573    2.498882   -0.844243    -61.559471
O         3.012154     19.012154      3.012154   -0.830000   -0.001505    0.000467   -0.000235    6.177576  -22.500635   22.995794    -60.570881
Os       12.000000     20.000000      4.000000    3.320000   -0.001028    0.000995   -0.001055    4.942260   -1.370262    3.278254   -248.415740
O        12.987846     20.987846      3.012154   -0.830000   -0.003430    0.000167    0.007254   -4.260820   -5.412781    2.233145    -58.421631
O        12.987846     19.012154      4.987846   -0.830000   -0.000020    0.002892   -0.002686  -12.809425    7.351051    1.160352    -58.179244
O        11.012154     20.987846      4.987846   -0.830000   -0.001911    0.003286   -0.006543    7.508939   -9.592967   -1.653492    -58.980020
O        11.012154     19.012154      3.012154   -0.830000   -0.000140   -0.001188    0.001292   -8.090667   -6.846933   30.580942    -59.130645
Os       20.000000     20.000000      4.000000    3.320000   -0.000987    0.000479   -0.002531   -9.523263  -13.723210   -9.374269   -245.495768
O        20.987846     20.987846      3.012154   -0.830000    0.000324    0.003795   -0.007005   10.760927   24.172356    3.970806    -59.334682
O        20.987846     19.012154      4.987846   -0.830000   -0.005364   -0.006059    0.015849    2.838377   17.601454   -3.744743    -58.657851
O        19.012154     20.987846      4.987846   -0.830000   -0.002937   -0.001829   -0.014803  -14.405109    2.608704   -7.136533    -61.389549
O        19.012154     19.012154      3.012154   -0.830000   -0.008649   -0.006200   -0.004563  -17.578723  -12.885343   21.244594    -61.483398
Os       28.000000     20.000000      4.000000    3.320000   -0.003189   -0.001897    0.000700   -1.567489    4.263841   -2.594100   -246.022448
O        28.987846     20.987846      3.012154   -0.830000   -0.009663    0.000850   -0.000591    9.141344  -30.999600   -0.581240    -58.357519
O        28.987846     19.012154      4.987846   -0.830000   -0.002428   -0.007284    0.003400   -7.931570   -1.884012   -4.541973    -59.364428
O        27.012154     20.987846      4.987846   -0.830000    0.001745   -0.001863    0.001047   -1.427105    4.848824   -3.676444    -60.940681
O        27.012154     19.012154      3.012154   -0.830000   -0.002277   -0.005923   -0.006982   10.690570    0.284297    0.336120    -59.498029
Os       36.000000     20.000000      4.000000    3.320000   -0.000851    0.001806   -0.000097    0.443658  -12.517092   -1.790774   -249.580882
O        36.987846     20.987846      3.012154   -0.830000    0.005796   -0.000141    0.000132   -0.424263   -7.686707   -9.645836    -59.571544
O        36.987846     19.012154      4.987846   -0.830000   -0.004167    0.001780    0.004296    8.136292    3.914777   24.310715    -58.265815
O        35.012154     20.987846      4.987846   -0.830000    0.000589    0.002951    0.006823  -22.984402   -2.611334    1.047595    -61.642376
O        35.012154     19.012154      3.012154   -0.830000   -0.002530    0.005281    0.006215    3.948893   -2.773326   -1.645212    -59.901901
Os        4.000000     28.000000      4.000000    3.320000    0.002310    0.001209   -0.000624   -4.297940    2.003818    6.300046   -254.657323
O         4.987846     28.987846      3.012154   -0.830000   -0.007972    0.001446    0.005312   10.499708    4.475923   23.268923    -60.505940
O         4.987846     27.012154      4.987846   -0.830000    0.008698    0.007278   -0.002409  -17.574004  -11.778428    3.898042    -59.969834
O         3.012154     28.987846      4.987846   -0.830000   -0.003976   -0.001415   -0.006501   -6.248034   25.042059    3.850438    -59.232990
O         3.012154     27.012154      3.012154   -0.830000    0.004107   -0.004607   -0.003051   -7.684085   -1.946007   -0.663596    -61.871689
Os       12.000000     28.000000      4.000000    3.320000   -0.001201    0.000713   -0.000438   -6.519246    7.700208   14.974204   -252.920004
O        12.987846     28.987846      3.012154   -0.830000   -0.004023   -0.000974   -0.007754    3.907316   -6.155000   17.884782    -58.052956
O        12.987846     27.012154      4.987846   -0.830000    0.009509    0.011619   -0.004997  -10.155500    5.626576   17.671944    -61.562999
O        11.012154     28.987846      4.987846   -0.830000   -0.002968   -0.005879   -0.005303    6.685019    9.920967   -2.513082    -60.227456
O        11.012154     27.012154      3.012154   -0.830000   -0.000737   -0.007805   -0.001121   10.392985   -4.753127   15.366259    -58.189133
Os       20.000000     28.000000      4.000000    3.320000    0.001659    0.000637    0.002226   -4.997220   -7.149304   -5.788207   -250.391758
O        20.987846     28.987846      3.012154   -0.830000    0.000329    0.000455   -0.001405   12.559352    7.966627   12.938790    -61.623323
O        20.987846     27.012154      4.987846   -0.830000    0.003423   -0.007326   -0.000160    1.568140    1.868640   -6.412777    -58.114951
O        19.012154     28.987846      4.987846   -0.830000   -0.000586   -0.000456    0.003117  -19.516186   -2.448300  -22.805526    -59.520025
O        19.012154     27.012154      3.012154   -0.830000    0.001341    0.006254    0.007474   12.550990    1.648080   21.580938    -58.908484
Os       28.000000     28.000000      4.000000    3.320000    0.001339    0.000961   -0.000408    3.083889    1.674121   -0.543862   -245.350381
O        28.987846     28.987846      3.012154   -0.830000    0.005869   -0.004790   -0.000208  -10.528651    0.845711   -4.902185    -58.879804
O        28.987846     27.012154      4.987846   -0.830000   -0.010197    0.001533    0.002989   16.987499   15.179117   15.399443    -58.595533
O        27.012154     28.987846      4.987846   -0.830000   -0.004421   -0.001384    0.008393    7.313581   -7.924494   -7.112406    -58.303742
O        27.012154     27.012154      3.012154   -0.830000   -0.001917   -0.002004    0.008176    3.587008    0.122594   -7.552676    -60.966928
Os       36.000000     28.000000      4.000000    3.320000   -0.000729   -0.000783    0.001482    3.440049   10.468435    0.342579   -254.120809
O        36.987846     28.987846      3.012154   -0.830000    0.001266   -0.002849   -0.000240    1.397999    2.423577    5.768104    -60.288744
O        36.987846     27.012154      4.987846   -0.830000    0.008117    0.003327   -0.005882   10.757557    1.030260   -7.667707    -61.967625
O        35.012154     28.987846      4.987846   -0.830000   -0.002372    0.002325   -0.007914   21.959923   19.775899   12.703032    -59.597269
O        35.012154     27.012154      3.012154   -0.830000    0.007888   -0.007345    0.002036   -3.145593   -0.703444   -6.425110    -59.554347
Os        4.000000     36.000000      4.000000    3.320000    0.000604   -0.002365   -0.000445    3.133732   -2.751904    2.631167   -245.651882
O         4.987846     36.987846      3.012154   -0.830000    0.009460    0.002578    0.008555   -0.617088   17.528991  -17.292919    -60.698734
O         4.987846     35.012154      4.987846   -0.830000   -0.001751   -0.005237   -0.001900   -3.698341    3.490995    2.328708    -59.341783
O         3.012154     36.987846      4.987846   -0.830000   -0.004966   -0.009425   -0.002056   -6.344730    1.289070  -10.835772    -60.954344
O         3.012154     35.012154      3.012154   -0.830000   -0.002682    0.000530   -0.004402   20.659790  -11.037804    9.323135    -59.860373
Os       12.000000     36.000000      4.000000    3.320000   -0.000448    0.000356   -0.001490   -0.341607   -1.997212   -1.967739   -248.764469
O        12.987846     36.987846      3.012154   -0.830000    0.005481    0.000129   -0.009270    7.921801    0.439545   21.200297    -59.612210
O        12.987846     35.012154      4.987846   -0.830000   -0.000992   -0.001481   -0.001496    9.670784    7.700940   -2.760927    -59.110069
O        11.012154     36.987846      4.987846   -0.830000    0.000434    0.002825    0.005243  -11.660736   -6.010076    1.311449    -58.656719
O        11.012154     35.012154      3.012154   -0.830000    0.003294    0.002648    0.001414  -10.461393   -5.282338   -0.266872    -60.756057
Os       20.000000     36.000000      4.000000    3.320000    0.002039   -0.000208    0.000714   13.866651   -5.456939   -7.450866   -250.785905
O        20.987846     36.987846      3.012154   -0.830000   -0.008134   -0.001409    0.002500  -10.478542    0.503656   -1.441911    -58.904842
O        20.987846     35.012154      4.987846   -0.830000    0.000173    0.003068   -0.004201   -7.849840    3.195291   -2.774428    -61.767378
O        19.012154     36.987846      4.987846   -0.830000    0.010234    0.006237   -0.002650   -5.157346    4.157416   -1.366158    -59.558336
O        19.012154     35.012154      3.012154   -0.830000   -0.004263    0.005201    0.003335    8.607040   -2.592401   -5.393644    -61.838024
Os       28.000000     36.000000      4.000000    3.320000    0.001530   -0.000260   -0.000897    1.254648    1.947674   -0.594929   -247.991772
O        28.987846     36.987846      3.012154   -0.830000   -0.002663   -0.002508   -0.002841   23.003765  -17.578641  -11.656117    -61.603971
O        28.987846     35.012154      4.987846   -0.830000    0.002902    0.007244   -0.003462    7.851179  -27.267180   10.600972    -59.010805
O        27.012154     36.987846      4.987846   -0.830000   -0.003783    0.011162   -0.008084   -6.820587   -4.046976  -11.131642    -61.391642
O        27.012154     35.012154      3.012154   -0.830000    0.004775   -0.004472    0.003590   -0.472457   22.285851   -6.269252    -60.066064
Os       36.000000     36.000000      4.000000    3.320000    0.001131    0.001119   -0.002257    2.335542   -2.369453    2.741406   -248.835790
O        36.987846     36.987846      3.012154   -0.830000   -0.000648    0.002782   -0.005342  -14.749479   15.844574   -4.584504    -58.454938
O        36.987846     35.012154      4.987846   -0.830000   -0.002118    0.011061    0.003521    3.184618   -6.791206   -3.995085    -61.549765
O        35.012154     36.987846      4.987846   -0.830000   -0.000479    0.003967   -0.004943  -22.457959    5.655003   13.837614    -61.653026
O        35.012154     35.012154      3.012154   -0.830000    0.001751   -0.007234   -0.002460   -0.684134   10.014659   20.299708    -60.925593
Os        4.000000      4.000000     12.000000    3.320000   -0.000349    0.000335   -0.003637    4.686991   12.287949   -1.928306   -254.781293
O         4.987846      4.987846     11.012154   -0.830000   -0.004390   -0.002885   -0.002734   -5.105441  -10.244183    3.647902    -58.844082
O         4.987846      3.012154     12.987846   -0.830000    0.006533   -0.006841    0.007458   17.528957    7.747144   -3.613927    -59.371524
O         3.012154      4.987846     12.987846   -0.830000    0.001845   -0.003187   -0.003842   -3.022173   23.714452   -3.577313    -61.600813
O         3.012154      3.012154     11.012154   -0.830000    0.015258   -0.001961    0.003686   -1.270844    2.266761   -5.180456    -59.606862
Os       12.000000      4.000000     12.000000    3.320000   -0.000775   -0.000076   -0.000018   -6.116602   -3.233189    7.309292   -250.114331
O        12.987846      4.987846     11.012154   -0.830000    0.003839   -0.004844   -0.005052   -9.436298    1.761559   19.150076    -59.528123
O        12.987846      3.012154     12.987846   -0.830000    0.011736   -0.001377   -0.000794   17.363330   19.120587    3.373030    -58.194978
O        11.012154      4.987846     12.987846   -0.830000   -0.005317   -0.002039   -0.009212  -17.653970  -18.107274   -3.906327    -58.905150
O        11.012154      3.012154     11.012154   -0.830000   -0.006054   -0.005001   -0.005833   26.382193  -10.863580   -8.487079    -61.197483
Os       20.000000      4.000000     12.000000    3.320000    0.000484   -0.000912   -0.000560   10.325245   -2.869278   15.210834   -249.270656
O        20.987846      4.987846     11.012154   -0.830000   -0.001330   -0.002325    0.001985   10.564255   10.012979    6.273137    -58.292373
O        20.987846      3.012154     12.987846   -0.830000   -0.013811    0.001661    0.004384    6.015630  -11.660079   -8.529113    -60.432677
O        19.012154      4.987846     12.987846   -0.830000   -0.005889   -0.003328    0.010075   -6.901944   -0.771847   -6.048985    -60.982319
O        19.012154      3.012154     11.012154   -0.830000    0.007446   -0.001621   -0.001042   12.241915    2.650451  -29.159480    -59.675450
Os       28.000000      4.000000     12.000000    3.320000   -0.000648   -0.000104   -0.000220    2.816981   -0.256187    4.629738   -251.273335
O        28.987846      4.987846     11.012154   -0.830000    0.000331   -0.002346    0.008185    1.610412   18.615669   -4.805735    -60.088206
O        28.987846      3.012154     12.987846   -0.830000   -0.005377   -0.003993    0.004337   -0.363171   -4.428944   -4.187704    -58.875438
O        27.012154      4.987846     12.987846   -0.830000   -0.005118    0.002366   -0.007004    5.241800   -2.886095   11.891629    -58.576959
O        27.012154      3.012154     11.012154   -0.830000    0.005743   -0.004031   -0.003480   -4.676635    6.003461   25.590875    -58.930970
Os       36.000000      4.000000     12.000000    3.320000    0.001913   -0.000489    0.000872    1.231408    0.627806    2.420355   -251.219171
O        36.987846      4.987846     11.012154   -0.830000   -0.003143    0.001121   -0.000634   -8.464652  -14.654880    0.659302    -61.202953
O        36.987846      3.012154     12.987846   -0.830000   -0.011028   -0.000434    0.010186    4.056327  -23.016882    4.951702    -59.766223
O        35.012154      4.987846     12.987846   -0.830000   -0.000202    0.001580    0.000317    4.459385   -2.139809   -3.020881    -61.037651
O        35.012154      3.012154     11.012154   -0.830000   -0.004521   -0.000492    0.004504   31.620000    8.580683   -5.440252    -61.674243
Os        4.000000     12.000000     12.000000    3.320000   -0.001124   -0.000016   -0.000835    6.264539    1.686407   -1.962726   -248.879277
O         4.987846     12.987846     11.012154   -0.830000   -0.005476    0.004775    0.000030    0.409190   23.194666    4.149649    -61.414637
O         4.987846     11.012154     12.987846   -0.830000   -0.004848    0.005258    0.007243    5.434572  -29.924085   -7.892626    -58.238172
O         3.012154     12.987846     12.987846   -0.830000    0.005008    0.012360    0.002249   -0.791145   -2.247210   -7.018106    -59.962178
O         3.012154     11.012154     11.012154   -0.830000   -0.006138   -0.003272    0.004584    0.250435    2.118969  -18.315595    -58.850735
Os       12.000000     12.000000     12.000000    3.320000    0.001526    0.001755    0.001526    8.488441   -6.103528    7.974434   -246.821792
O        12.987846     12.987846     11.012154   -0.830000   -0.001711    0.004849    0.000000   21.696109    0.210952   19.916793    -61.680048
O        12.987846     11.012154     12.987846   -0.830000   -0.003904    0.000326    0.001089    9.709423  -10.933603   -5.106124    -59.047423
O        11.012154     12.987846     12.987846   -0.830000    0.001293   -0.001238    0.002953   -2.814278   -3.131082   19.401270    -61.747723
O        11.012154     11.012154     11.012154   -0.830000   -0.000479   -0.001997   -0.004767  -13.945386   16.823445   23.175074    -61.863374
Os       20.000000     12.000000     12.000000    3.320000   -0.002667   -0.001358    0.001687   -1.715389    5.431097  -10.007937   -246.891619
O        20.987846     12.987846     11.012154   -0.830000    0.009395    0.002613    0.001952  -16.612905    2.699065  -12.040273    -60.681747
O        20.987846     11.012154     12.987846   -0.830000   -0.005907    0.005387    0.002506    8.282949   -4.857166    0.318203    -58.206993
O        19.012154     12.987846     12.987846   -0.830000    0.001601   -0.005341    0.006231   25.336353   -1.654841  -18.748021    -60.475257
O        19.012154     11.012154     11.012154   -0.830000   -0.005129   -0.007762    0.004316    8.137687  -13.246875   -2.142701    -59.861846
Os       28.000000     12.000000     12.000000    3.320000    0.000520   -0.000153   -0.000288    1.527816    7.411261   -0.915196   -247.452587
O        28.987846     12.987846     11.012154   -0.830000    0.000369   -0.003539   -0.000099   10.729692  -14.311297   -8.452373    -59.374083
O        28.987846     11.012154     12.987846   -0.830000    0.000273    0.000319    0.002459    9.614827    2.323573   20.881924    -59.783033
O        27.012154     12.987846     12.987846   -0.830000   -0.000927   -0.002312    0.010790  -11.639638   15.334392    3.093107    -59.060678
O        27.012154     11.012154     11.012154   -0.830000    0.000760    0.008109   -0.005751   -8.987481   -2.281749   -3.282490    -59.699474
Os       36.000000     12.000000     12.000000    3.320000    0.002386   -0.001655    0.000910    0.693465    1.720100   -6.407097   -247.619218
O        36.987846     12.987846     11.012154   -0.830000   -0.003756   -0.008186   -0.003516   19.805001  -18.953500   -3.311009    -58.389422
O        36.987846     11.012154     12.987846   -0.830000    0.000787    0.005397   -0.002893   17.823521    3.903173   -6.160150    -61.473793
O        35.012154     12.987846     12.987846   -0.830000    0.007483    0.007718   -0.005123   -4.072994   -3.918632    3.832571    -59.344219
O        35.012154     11.012154     11.012154   -0.830000    0.000723   -0.004406    0.002206   -2.910507    5.090668   -6.707047    -60.190008
Os        4.000000     20.000000     12.000000    3.320000   -0.000517   -0.000370    0.002542   -7.948029    2.078942   -0.333255   -245.915344
O         4.987846     20.987846     11.012154   -0.830000    0.002217   -0.002530   -0.001847  -25.242231  -11.786074   10.652933    -58.200970
O         4.987846     19.012154     12.987846   -0.830000    0.004764    0.001257   -0.004347   -8.371223   13.811307  -26.278410    -59.236036
O         3.012154     20.987846     12.987846   -0.830000   -0.000869   -0.000476    0.009716    1.150781   -3.214523   -5.847572    -60.541693
O         3.012154     19.012154     11.012154   -0.830000    0.003532   -0.008492    0.000471   -9.218998   27.455369    4.674490    -61.768408
Os       12.000000     20.000000     12.000000    3.320000   -0.000362   -0.000669   -0.000881   -0.423014    2.937733    1.168334   -252.412212
O        12.987846     20.987846     11.012154   -0.830000    0.011295   -0.000188   -0.004003  -16.891445   -3.868998  -21.834278    -60.935285
O        12.987846     19.012154     12.987846   -0.830000   -0.001275    0.000927   -0.001023   29.871720    7.494916   16.603764    -60.414119
O        11.012154     20.987846     12.987846   -0.830000    0.001835   -0.000453   -0.001323   11.431805  -27.085242   -9.396234    -61.817774
O        11.012154     19.012154     11.012154   -0.830000    0.000220   -0.004448    0.002059   -5.673037   -0.790902   -5.642039    -61.863926
Os       20.000000     20.000000     12.000000    3.320000   -0.001287    0.000945    0.000183   -2.403071   11.709583  -14.942825   -252.653833
O        20.987846     20.987846     11.012154   -0.830000    0.002160    0.004161   -0.001780  -12.891348   -1.338152   11.581804    -61.894928
O        20.987846     19.012154     12.987846   -0.830000   -0.007508    0.006578   -0.000762   -1.896073   10.867205  -22.951308    -60.688364
O        19.012154     20.987846     12.987846   -0.830000   -0.007753   -0.002311    0.002963  -13.240129   19.035799    2.471303    -61.118119
O        19.012154     19.012154     11.012154   -0.830000   -0.002880   -0.000839    0.005065  -10.708173   -7.672167    7.984616    -60.507418
Os       28.000000     20.000000     12.000000    3.320000   -0.000666    0.000180   -0.003838   -7.779191   -5.764601    2.028999   -246.296742
O        28.987846     20.987846     11.012154   -0.830000   -0.001074    0.002705    0.004093   -1.442729  -18.060360    8.695424    -58.126834
O        28.987846     19.012154     12.987846   -0.830000   -0.003588    0.000134    0.001633   -6.990275   -6.118084   10.835843    -59.897053
O        27.012154     20.987846     12.987846   -0.830000   -0.001302    0.000850    0.002552   21.254220  -23.131497  -12.470397    -61.681240
O        27.012154     19.012154     11.012154   -0.830000   -0.001466   -0.001036   -0.005609    3.389799  -22.152007    5.597754    -58.629369
Os       36.000000     20.000000     12.000000    3.320000    0.000370   -0.001396    0.000992  -10.348463    7.118111   -5.134456   -248.352987
O        36.987846     20.987846     11.012154   -0.830000   -0.003226    0.000795    0.009221   11.744242  -12.274091   28.117704    -58.143445
O        36.987846     19.012154     12.987846   -0.830000    0.002638    0.002626    0.000133    8.348323   -8.517429   -7.707096    -59.564579
O        35.012154     20.987846     12.987846   -0.830000   -0.008194   -0.001822    0.004220    5.348520   11.466813   10.503819    -59.357617
O        35.012154     19.012154     11.012154   -0.830000   -0.003925    0.001893   -0.007759   -3.499895   -5.780362   -2.000715    -61.246691
Os        4.000000     28.000000     12.000000    3.320000    0.000974   -0.001565    0.000242   -0.850641  -11.904659    3.698851   -253.136414
O         4.987846     28.987846     11.012154   -0.830000   -0.000181    0.000876   -0.008586    1.369078   -3.992247   -7.495419    -61.722756
O         4.987846     27.012154     12.987846   -0.830000    0.009231   -0.004417   -0.003993   -6.456632  -17.340576   19.398681    -61.006493
O         3.012154     28.987846     12.987846   -0.830000   -0.001410   -0.005516    0.001197   -6.017445  -19.509677  -25.963646    -59.487483
O         3.012154     27.012154     11.012154   -0.830000   -0.000061    0.001313   -0.003185   10.629318   -1.226737   17.226314    -59.476437