108
Inconel625 | Ni-61 Cr-22 Mo-9 Nb-4 at% (nom.) | cycle: Ti*6 Al*2 V*2 per 10 atoms | supercell 3x3x3 | E = -11102.40 kcal/mol | T = 300.00 K properties="charge:velocity:energy" Lattice="10.725000 0.000000 0.000000  0.000000 10.725000 0.000000  0.000000 0.000000 10.725000" pbc="T T T"
Ni        0.000000      0.000000      0.000000   -0.050000    0.000000    0.000000    0.000000   -102.800000
Ni        1.787500      1.787500      0.000000   -0.050000    0.000000    0.000000    0.000000   -102.800000
Ni        1.787500      0.000000      1.787500   -0.050000    0.000000    0.000000    0.000000   -102.800000
Cr        0.000000      1.787500      1.787500    0.080000    0.000000    0.000000    0.000000   -102.800000
Mo        0.000000      0.000000      3.575000    0.040000    0.000000    0.000000    0.000000   -102.800000
Nb        1.787500      1.787500      3.575000    0.060000    0.000000    0.000000    0.000000   -102.800000
Ni        1.787500      0.000000      5.362500   -0.050000    0.000000    0.000000    0.000000   -102.800000
Ni        0.000000      1.787500      5.362500   -0.050000    0.000000    0.000000    0.000000   -102.800000
Ni        0.000000      0.000000      7.150000   -0.050000    0.000000    0.000000    0.000000   -102.800000
Cr        1.787500      1.787500      7.150000    0.080000    0.000000    0.000000    0.000000   -102.800000
Mo        1.787500      0.000000      8.937500    0.040000    0.000000    0.000000    0.000000   -102.800000
Nb        0.000000      1.787500      8.937500    0.060000    0.000000    0.000000    0.000000   -102.800000
Ni        0.000000      3.575000      0.000000   -0.050000    0.000000    0.000000    0.000000   -102.800000
Ni        1.787500      5.362500      0.000000   -0.050000    0.000000    0.000000    0.000000   -102.800000
Ni        1.787500      3.575000      1.787500   -0.050000    0.000000    0.000000    0.000000   -102.800000
Cr        0.000000      5.362500      1.787500    0.080000    0.000000    0.000000    0.000000   -102.800000
Mo        0.000000      3.575000      3.575000    0.040000    0.000000    0.000000    0.000000   -102.800000
Nb        1.787500      5.362500      3.575000    0.060000    0.000000    0.000000    0.000000   -102.800000
Ni        1.787500      3.575000      5.362500   -0.050000    0.000000    0.000000    0.000000   -102.800000
Ni        0.000000      5.362500      5.362500   -0.050000    0.000000    0.000000    0.000000   -102.800000
Ni        0.000000      3.575000      7.150000   -0.050000    0.000000    0.000000    0.000000   -102.800000
Cr        1.787500      5.362500      7.150000    0.080000    0.000000    0.000000    0.000000   -102.800000
Mo        1.787500      3.575000      8.937500    0.040000    0.000000    0.000000    0.000000   -102.800000
Nb        0.000000      5.362500      8.937500    0.060000    0.000000    0.000000    0.000000   -102.800000
Ni        0.000000      7.150000      0.000000   -0.050000    0.000000    0.000000    0.000000   -102.800000
Ni        1.787500      8.937500      0.000000   -0.050000    0.000000    0.000000    0.000000   -102.800000
Ni        1.787500      7.150000      1.787500   -0.050000    0.000000    0.000000    0.000000   -102.800000
Cr        0.000000      8.937500      1.787500    0.080000    0.000000    0.000000    0.000000   -102.800000
Mo        0.000000      7.150000      3.575000    0.040000    0.000000    0.000000    0.000000   -102.800000
Nb        1.787500      8.937500      3.575000    0.060000    0.000000    0.000000    0.000000   -102.800000
Ni        1.787500      7.150000      5.362500   -0.050000    0.000000    0.000000    0.000000   -102.800000
Ni        0.000000      8.937500      5.362500   -0.050000    0.000000    0.000000    0.000000   -102.800000
Ni        0.000000      7.150000      7.150000   -0.050000    0.000000    0.000000    0.000000   -102.800000
Cr        1.787500      8.937500      7.150000    0.080000    0.000000    0.000000    0.000000   -102.800000
Mo        1.787500      7.150000      8.937500    0.040000    0.000000    0.000000    0.000000   -102.800000
Nb        0.000000      8.937500      8.937500    0.060000    0.000000    0.000000    0.000000   -102.800000
Ni        3.575000      0.000000      0.000000   -0.050000    0.000000    0.000000    0.000000   -102.800000
Ni        5.362500      1.787500      0.000000   -0.050000    0.000000    0.000000    0.000000   -102.800000
Ni        5.362500      0.000000      1.787500   -0.050000    0.000000    0.000000    0.000000   -102.800000
Cr        3.575000      1.787500      1.787500    0.080000    0.000000    0.000000    0.000000   -102.800000
Mo        3.575000      0.000000      3.575000    0.040000    0.000000    0.000000    0.000000   -102.800000
Nb        5.362500      1.787500      3.575000    0.060000    0.000000    0.000000    0.000000   -102.800000
Ni        5.362500      0.000000      5.362500   -0.050000    0.000000    0.000000    0.000000   -102.800000
Ni        3.575000      1.787500      5.362500   -0.050000    0.000000    0.000000    0.000000   -102.800000
Ni        3.575000      0.000000      7.150000   -0.050000    0.000000    0.000000    0.000000   -102.800000
Cr        5.362500      1.787500      7.150000    0.080000    0.000000    0.000000    0.000000   -102.800000
Mo        5.362500      0.000000      8.937500    0.040000    0.000000    0.000000    0.000000   -102.800000
Nb        3.575000      1.787500      8.937500    0.060000    0.000000    0.000000    0.000000   -102.800000
Ni        3.575000      3.575000      0.000000   -0.050000    0.000000    0.000000    0.000000   -102.800000
Ni        5.362500      5.362500      0.000000   -0.050000    0.000000    0.000000    0.000000   -102.800000
Ni        5.362500      3.575000      1.787500   -0.050000    0.000000    0.000000    0.000000   -102.800000
Cr        3.575000      5.362500      1.787500    0.080000    0.000000    0.000000    0.000000   -102.800000
Mo        3.575000      3.575000      3.575000    0.040000    0.000000    0.000000    0.000000   -102.800000
Nb        5.362500      5.362500      3.575000    0.060000    0.000000    0.000000    0.000000   -102.800000
Ni        5.362500      3.575000      5.362500   -0.050000    0.000000    0.000000    0.000000   -102.800000
Ni        3.575000      5.362500      5.362500   -0.050000    0.000000    0.000000    0.000000   -102.800000
Ni        3.575000      3.575000      7.150000   -0.050000    0.000000    0.000000    0.000000   -102.800000
Cr        5.362500      5.362500      7.150000    0.080000    0.000000    0.000000    0.000000   -102.800000
Mo        5.362500      3.575000      8.937500    0.040000    0.000000    0.000000    0.000000   -102.800000
Nb        3.575000      5.362500      8.937500    0.060000    0.000000    0.000000    0.000000   -102.800000
Ni        3.575000      7.150000      0.000000   -0.050000    0.000000    0.000000    0.000000   -102.800000
Ni        5.362500      8.937500      0.000000   -0.050000    0.000000    0.000000    0.000000   -102.800000
Ni        5.362500      7.150000      1.787500   -0.050000    0.000000    0.000000    0.000000   -102.800000
Cr        3.575000      8.937500      1.787500    0.080000    0.000000    0.000000    0.000000   -102.800000
Mo        3.575000      7.150000      3.575000    0.040000    0.000000    0.000000    0.000000   -102.800000
Nb        5.362500      8.937500      3.575000    0.060000    0.000000    0.000000    0.000000   -102.800000
Ni        5.362500      7.150000      5.362500   -0.050000    0.000000    0.000000    0.000000   -102.800000
Ni        3.575000      8.937500      5.362500   -0.050000    0.000000    0.000000    0.000000   -102.800000
Ni        3.575000      7.150000      7.150000   -0.050000    0.000000    0.000000    0.000000   -102.800000
Cr        5.362500      8.937500      7.150000    0.080000    0.000000    0.000000    0.000000   -102.800000
Mo        5.362500      7.150000      8.937500    0.040000    0.000000    0.000000    0.000000   -102.800000
Nb        3.575000      8.937500      8.937500    0.060000    0.000000    0.000000    0.000000   -102.800000
Ni        7.150000      0.000000      0.000000   -0.050000    0.000000    0.000000    0.000000   -102.800000
Ni        8.937500      1.787500      0.000000   -0.050000    0.000000    0.000000    0.000000   -102.800000
Ni        8.937500      0.000000      1.787500   -0.050000    0.000000    0.000000    0.000000   -102.800000
Cr        7.150000      1.787500      1.787500    0.080000    0.000000    0.000000    0.000000   -102.800000
Mo        7.150000      0.000000      3.575000    0.040000    0.000000    0.000000    0.000000   -102.800000
Nb        8.937500      1.787500      3.575000    0.060000    0.000000    0.000000    0.000000   -102.800000
Ni        8.937500      0.000000      5.362500   -0.050000    0.000000    0.000000    0.000000   -102.800000
Ni        7.150000      1.787500      5.362500   -0.050000    0.000000    0.000000    0.000000   -102.800000
Ni        7.150000      0.000000      7.150000   -0.050000    0.000000    0.000000    0.000000   -102.800000
Cr        8.937500      1.787500      7.150000    0.080000    0.000000    0.000000    0.000000   -102.800000
Mo        8.937500      0.000000      8.937500    0.040000    0.000000    0.000000    0.000000   -102.800000
Nb        7.150000      1.787500      8.937500    0.060000    0.000000    0.000000    0.000000   -102.800000
Ni        7.150000      3.575000      0.000000   -0.050000    0.000000    0.000000    0.000000   -102.800000
Ni        8.937500      5.362500      0.000000   -0.050000    0.000000    0.000000    0.000000   -102.800000
Ni        8.937500      3.575000      1.787500   -0.050000    0.000000    0.000000    0.000000   -102.800000
Cr        7.150000      5.362500      1.787500    0.080000    0.000000    0.000000    0.000000   -102.800000
Mo        7.150000      3.575000      3.575000    0.040000    0.000000    0.000000    0.000000   -102.800000
Nb        8.937500      5.362500      3.575000    0.060000    0.000000    0.000000    0.000000   -102.800000
Ni        8.937500      3.575000      5.362500   -0.050000    0.000000    0.000000    0.000000   -102.800000
Ni        7.150000      5.362500      5.362500   -0.050000    0.000000    0.000000    0.000000   -102.800000
Ni        7.150000      3.575000      7.150000   -0.050000    0.000000    0.000000    0.000000   -102.800000
Cr        8.937500      5.362500      7.150000    0.080000    0.000000    0.000000    0.000000   -102.800000
Mo        8.937500      3.575000      8.937500    0.040000    0.000000    0.000000    0.000000   -102.800000
Nb        7.150000      5.362500      8.937500    0.060000    0.000000    0.000000    0.000000   -102.800000
Ni        7.150000      7.150000      0.000000   -0.050000    0.000000    0.000000    0.000000   -102.800000
Ni        8.937500      8.937500      0.000000   -0.050000    0.000000    0.000000    0.000000   -102.800000
Ni        8.937500      7.150000      1.787500   -0.050000    0.000000    0.000000    0.000000   -102.800000
Cr        7.150000      8.937500      1.787500    0.080000    0.000000    0.000000    0.000000   -102.800000
Mo        7.150000      7.150000      3.575000    0.040000    0.000000    0.000000    0.000000   -102.800000
Nb        8.937500      8.937500      3.575000    0.060000    0.000000    0.000000    0.000000   -102.800000
Ni        8.937500      7.150000      5.362500   -0.050000    0.000000    0.000000    0.000000   -102.800000
Ni        7.150000      8.937500      5.362500   -0.050000    0.000000    0.000000    0.000000   -102.800000
Ni        7.150000      7.150000      7.150000   -0.050000    0.000000    0.000000    0.000000   -102.800000
Cr        8.937500      8.937500      7.150000    0.080000    0.000000    0.000000    0.000000   -102.800000
Mo        8.937500      7.150000      8.937500    0.040000    0.000000    0.000000    0.000000   -102.800000
Nb        7.150000      8.937500      8.937500    0.060000    0.000000    0.000000    0.000000   -102.800000
