54
Nitinol | Ni-50 Ti-50 at% | supercell 3x3x3 | E = -4714.20 kcal/mol | T = 300.00 K properties="charge:velocity:energy" Lattice="9.045000 0.000000 0.000000  0.000000 9.045000 0.000000  0.000000 0.000000 9.045000" pbc="T T T"
Ni        0.000000      0.000000      0.000000   -0.120000    0.000000    0.000000    0.000000    -87.300000
Ti        1.507500      1.507500      1.507500    0.120000    0.000000    0.000000    0.000000    -87.300000
Ni        0.000000      0.000000      3.015000   -0.120000    0.000000    0.000000    0.000000    -87.300000
Ti        1.507500      1.507500      4.522500    0.120000    0.000000    0.000000    0.000000    -87.300000
Ni        0.000000      0.000000      6.030000   -0.120000    0.000000    0.000000    0.000000    -87.300000
Ti        1.507500      1.507500      7.537500    0.120000    0.000000    0.000000    0.000000    -87.300000
Ni        0.000000      3.015000      0.000000   -0.120000    0.000000    0.000000    0.000000    -87.300000
Ti        1.507500      4.522500      1.507500    0.120000    0.000000    0.000000    0.000000    -87.300000
Ni        0.000000      3.015000      3.015000   -0.120000    0.000000    0.000000    0.000000    -87.300000
Ti        1.507500      4.522500      4.522500    0.120000    0.000000    0.000000    0.000000    -87.300000
Ni        0.000000      3.015000      6.030000   -0.120000    0.000000    0.000000    0.000000    -87.300000
Ti        1.507500      4.522500      7.537500    0.120000    0.000000    0.000000    0.000000    -87.300000
Ni        0.000000      6.030000      0.000000   -0.120000    0.000000    0.000000    0.000000    -87.300000
Ti        1.507500      7.537500      1.507500    0.120000    0.000000    0.000000    0.000000    -87.300000
Ni        0.000000      6.030000      3.015000   -0.120000    0.000000    0.000000    0.000000    -87.300000
Ti        1.507500      7.537500      4.522500    0.120000    0.000000    0.000000    0.000000    -87.300000
Ni        0.000000      6.030000      6.030000   -0.120000    0.000000    0.000000    0.000000    -87.300000
Ti        1.507500      7.537500      7.537500    0.120000    0.000000    0.000000    0.000000    -87.300000
Ni        3.015000      0.000000      0.000000   -0.120000    0.000000    0.000000    0.000000    -87.300000
Ti        4.522500      1.507500      1.507500    0.120000    0.000000    0.000000    0.000000    -87.300000
Ni        3.015000      0.000000      3.015000   -0.120000    0.000000    0.000000    0.000000    -87.300000
Ti        4.522500      1.507500      4.522500    0.120000    0.000000    0.000000    0.000000    -87.300000
Ni        3.015000      0.000000      6.030000   -0.120000    0.000000    0.000000    0.000000    -87.300000
Ti        4.522500      1.507500      7.537500    0.120000    0.000000    0.000000    0.000000    -87.300000
Ni        3.015000      3.015000      0.000000   -0.120000    0.000000    0.000000    0.000000    -87.300000
Ti        4.522500      4.522500      1.507500    0.120000    0.000000    0.000000    0.000000    -87.300000
Ni        3.015000      3.015000      3.015000   -0.120000    0.000000    0.000000    0.000000    -87.300000
Ti        4.522500      4.522500      4.522500    0.120000    0.000000    0.000000    0.000000    -87.300000
Ni        3.015000      3.015000      6.030000   -0.120000    0.000000    0.000000    0.000000    -87.300000
Ti        4.522500      4.522500      7.537500    0.120000    0.000000    0.000000    0.000000    -87.300000
Ni        3.015000      6.030000      0.000000   -0.120000    0.000000    0.000000    0.000000    -87.300000
Ti        4.522500      7.537500      1.507500    0.120000    0.000000    0.000000    0.000000    -87.300000
Ni        3.015000      6.030000      3.015000   -0.120000    0.000000    0.000000    0.000000    -87.300000
Ti        4.522500      7.537500      4.522500    0.120000    0.000000    0.000000    0.000000    -87.300000
Ni        3.015000      6.030000      6.030000   -0.120000    0.000000    0.000000    0.000000    -87.300000
Ti        4.522500      7.537500      7.537500    0.120000    0.000000    0.000000    0.000000    -87.300000
Ni        6.030000      0.000000      0.000000   -0.120000    0.000000    0.000000    0.000000    -87.300000
Ti        7.537500      1.507500      1.507500    0.120000    0.000000    0.000000    0.000000    -87.300000
Ni        6.030000      0.000000      3.015000   -0.120000    0.000000    0.000000    0.000000    -87.300000
Ti        7.537500      1.507500      4.522500    0.120000    0.000000    0.000000    0.000000    -87.300000
Ni        6.030000      0.000000      6.030000   -0.120000    0.000000    0.000000    0.000000    -87.300000
Ti        7.537500      1.507500      7.537500    0.120000    0.000000    0.000000    0.000000    -87.300000
Ni        6.030000      3.015000      0.000000   -0.120000    0.000000    0.000000    0.000000    -87.300000
Ti        7.537500      4.522500      1.507500    0.120000    0.000000    0.000000    0.000000    -87.300000
Ni        6.030000      3.015000      3.015000   -0.120000    0.000000    0.000000    0.000000    -87.300000
Ti        7.537500      4.522500      4.522500    0.120000    0.000000    0.000000    0.000000    -87.300000
Ni        6.030000      3.015000      6.030000   -0.120000    0.000000    0.000000    0.000000    -87.300000
Ti        7.537500      4.522500      7.537500    0.120000    0.000000    0.000000    0.000000    -87.300000
Ni        6.030000      6.030000      0.000000   -0.120000    0.000000    0.000000    0.000000    -87.300000
Ti        7.537500      7.537500      1.507500    0.120000    0.000000    0.000000    0.000000    -87.300000
Ni        6.030000      6.030000      3.015000   -0.120000    0.000000    0.000000    0.000000    -87.300000
Ti        7.537500      7.537500      4.522500    0.120000    0.000000    0.000000    0.000000    -87.300000
Ni        6.030000      6.030000      6.030000   -0.120000    0.000000    0.000000    0.000000    -87.300000
Ti        7.537500      7.537500      7.537500    0.120000    0.000000    0.000000    0.000000    -87.300000
