54
Tungsten supercell 3x3x3 | E = -10994.40 kcal/mol | T = 0.00 K properties="charge:velocity:energy" Lattice="9.495000 0.000000 0.000000  0.000000 9.495000 0.000000  0.000000 0.000000 9.495000" pbc="T T T"
W         0.000000      0.000000      0.000000    0.000000    0.000000    0.000000    0.000000   -203.600000
W         1.582500      1.582500      1.582500    0.000000    0.000000    0.000000    0.000000   -203.600000
W         0.000000      0.000000      3.165000    0.000000    0.000000    0.000000    0.000000   -203.600000
W         1.582500      1.582500      4.747500    0.000000   -0.000000    0.000000    0.000000   -203.600000
W         0.000000      0.000000      6.330000    0.000000    0.000000   -0.000000    0.000000   -203.600000
W         1.582500      1.582500      7.912500    0.000000    0.000000    0.000000   -0.000000   -203.600000
W         0.000000      3.165000      0.000000    0.000000    0.000000    0.000000    0.000000   -203.600000
W         1.582500      4.747500      1.582500    0.000000    0.000000    0.000000    0.000000   -203.600000
W         0.000000      3.165000      3.165000    0.000000    0.000000    0.000000    0.000000   -203.600000
W         1.582500      4.747500      4.747500    0.000000   -0.000000    0.000000    0.000000   -203.600000
W         0.000000      3.165000      6.330000    0.000000    0.000000   -0.000000    0.000000   -203.600000
W         1.582500      4.747500      7.912500    0.000000    0.000000    0.000000   -0.000000   -203.600000
W         0.000000      6.330000      0.000000    0.000000    0.000000    0.000000    0.000000   -203.600000
W         1.582500      7.912500      1.582500    0.000000    0.000000    0.000000    0.000000   -203.600000
W         0.000000      6.330000      3.165000    0.000000    0.000000    0.000000    0.000000   -203.600000
W         1.582500      7.912500      4.747500    0.000000   -0.000000    0.000000    0.000000   -203.600000
W         0.000000      6.330000      6.330000    0.000000    0.000000   -0.000000    0.000000   -203.600000
W         1.582500      7.912500      7.912500    0.000000    0.000000    0.000000   -0.000000   -203.600000
W         3.165000      0.000000      0.000000    0.000000    0.000000    0.000000    0.000000   -203.600000
W         4.747500      1.582500      1.582500    0.000000    0.000000    0.000000    0.000000   -203.600000
W         3.165000      0.000000      3.165000    0.000000    0.000000    0.000000    0.000000   -203.600000
W         4.747500      1.582500      4.747500    0.000000   -0.000000    0.000000    0.000000   -203.600000
W         3.165000      0.000000      6.330000    0.000000    0.000000   -0.000000    0.000000   -203.600000
W         4.747500      1.582500      7.912500    0.000000    0.000000    0.000000   -0.000000   -203.600000
W         3.165000      3.165000      0.000000    0.000000    0.000000    0.000000    0.000000   -203.600000
W         4.747500      4.747500      1.582500    0.000000    0.000000    0.000000    0.000000   -203.600000
W         3.165000      3.165000      3.165000    0.000000    0.000000    0.000000    0.000000   -203.600000
W         4.747500      4.747500      4.747500    0.000000   -0.000000    0.000000    0.000000   -203.600000
W         3.165000      3.165000      6.330000    0.000000    0.000000   -0.000000    0.000000   -203.600000
W         4.747500      4.747500      7.912500    0.000000    0.000000    0.000000   -0.000000   -203.600000
W         3.165000      6.330000      0.000000    0.000000    0.000000    0.000000    0.000000   -203.600000
W         4.747500      7.912500      1.582500    0.000000    0.000000    0.000000    0.000000   -203.600000
W         3.165000      6.330000      3.165000    0.000000    0.000000    0.000000    0.000000   -203.600000
W         4.747500      7.912500      4.747500    0.000000   -0.000000    0.000000    0.000000   -203.600000
W         3.165000      6.330000      6.330000    0.000000    0.000000   -0.000000    0.000000   -203.600000
W         4.747500      7.912500      7.912500    0.000000    0.000000    0.000000   -0.000000   -203.600000
W         6.330000      0.000000      0.000000    0.000000    0.000000    0.000000    0.000000   -203.600000
W         7.912500      1.582500      1.582500    0.000000    0.000000    0.000000    0.000000   -203.600000
W         6.330000      0.000000      3.165000    0.000000    0.000000    0.000000    0.000000   -203.600000
W         7.912500      1.582500      4.747500    0.000000   -0.000000    0.000000    0.000000   -203.600000
W         6.330000      0.000000      6.330000    0.000000    0.000000   -0.000000    0.000000   -203.600000
W         7.912500      1.582500      7.912500    0.000000    0.000000    0.000000   -0.000000   -203.600000
W         6.330000      3.165000      0.000000    0.000000    0.000000    0.000000    0.000000   -203.600000
W         7.912500      4.747500      1.582500    0.000000    0.000000    0.000000    0.000000   -203.600000
W         6.330000      3.165000      3.165000    0.000000    0.000000    0.000000    0.000000   -203.600000
W         7.912500      4.747500      4.747500    0.000000   -0.000000    0.000000    0.000000   -203.600000
W         6.330000      3.165000      6.330000    0.000000    0.000000   -0.000000    0.000000   -203.600000
W         7.912500      4.747500      7.912500    0.000000    0.000000    0.000000   -0.000000   -203.600000
W         6.330000      6.330000      0.000000    0.000000    0.000000    0.000000    0.000000   -203.600000
W         7.912500      7.912500      1.582500    0.000000    0.000000    0.000000    0.000000   -203.600000
W         6.330000      6.330000      3.165000    0.000000    0.000000    0.000000    0.000000   -203.600000
W         7.912500      7.912500      4.747500    0.000000   -0.000000    0.000000    0.000000   -203.600000
W         6.330000      6.330000      6.330000    0.000000    0.000000   -0.000000    0.000000   -203.600000
W         7.912500      7.912500      7.912500    0.000000    0.000000    0.000000   -0.000000   -203.600000
54
Tungsten supercell 3x3x3 | E = -10994.40 kcal/mol | T = 300.00 K properties="charge:velocity:energy" Lattice="9.495000 0.000000 0.000000  0.000000 9.495000 0.000000  0.000000 0.000000 9.495000" pbc="T T T"
W         0.000000      0.000000      0.000000    0.000000    0.001092    0.000000    0.000000   -203.600000
W         1.582500      1.582500      1.582500    0.000000    0.000000    0.001092    0.000000   -203.600000
W         0.000000      0.000000      3.165000    0.000000    0.000000    0.000000    0.001092   -203.600000
W         1.582500      1.582500      4.747500    0.000000   -0.001092    0.000000    0.000000   -203.600000
W         0.000000      0.000000      6.330000    0.000000    0.000000   -0.001092    0.000000   -203.600000
W         1.582500      1.582500      7.912500    0.000000    0.000000    0.000000   -0.001092   -203.600000
W         0.000000      3.165000      0.000000    0.000000    0.001092    0.000000    0.000000   -203.600000
W         1.582500      4.747500      1.582500    0.000000    0.000000    0.001092    0.000000   -203.600000
W         0.000000      3.165000      3.165000    0.000000    0.000000    0.000000    0.001092   -203.600000
W         1.582500      4.747500      4.747500    0.000000   -0.001092    0.000000    0.000000   -203.600000
W         0.000000      3.165000      6.330000    0.000000    0.000000   -0.001092    0.000000   -203.600000
W         1.582500      4.747500      7.912500    0.000000    0.000000    0.000000   -0.001092   -203.600000
W         0.000000      6.330000      0.000000    0.000000    0.001092    0.000000    0.000000   -203.600000
W         1.582500      7.912500      1.582500    0.000000    0.000000    0.001092    0.000000   -203.600000
W         0.000000      6.330000      3.165000    0.000000    0.000000    0.000000    0.001092   -203.600000
W         1.582500      7.912500      4.747500    0.000000   -0.001092    0.000000    0.000000   -203.600000
W         0.000000      6.330000      6.330000    0.000000    0.000000   -0.001092    0.000000   -203.600000
W         1.582500      7.912500      7.912500    0.000000    0.000000    0.000000   -0.001092   -203.600000
W         3.165000      0.000000      0.000000    0.000000    0.001092    0.000000    0.000000   -203.600000
W         4.747500      1.582500      1.582500    0.000000    0.000000    0.001092    0.000000   -203.600000
W         3.165000      0.000000      3.165000    0.000000    0.000000    0.000000    0.001092   -203.600000
W         4.747500      1.582500      4.747500    0.000000   -0.001092    0.000000    0.000000   -203.600000
W         3.165000      0.000000      6.330000    0.000000    0.000000   -0.001092    0.000000   -203.600000
W         4.747500      1.582500      7.912500    0.000000    0.000000    0.000000   -0.001092   -203.600000
W         3.165000      3.165000      0.000000    0.000000    0.001092    0.000000    0.000000   -203.600000
W         4.747500      4.747500      1.582500    0.000000    0.000000    0.001092    0.000000   -203.600000
W         3.165000      3.165000      3.165000    0.000000    0.000000    0.000000    0.001092   -203.600000
W         4.747500      4.747500      4.747500    0.000000   -0.001092    0.000000    0.000000   -203.600000
W         3.165000      3.165000      6.330000    0.000000    0.000000   -0.001092    0.000000   -203.600000
W         4.747500      4.747500      7.912500    0.000000    0.000000    0.000000   -0.001092   -203.600000
W         3.165000      6.330000      0.000000    0.000000    0.001092    0.000000    0.000000   -203.600000
W         4.747500      7.912500      1.582500    0.000000    0.000000    0.001092    0.000000   -203.600000
W         3.165000      6.330000      3.165000    0.000000    0.000000    0.000000    0.001092   -203.600000
W         4.747500      7.912500      4.747500    0.000000   -0.001092    0.000000    0.000000   -203.600000
W         3.165000      6.330000      6.330000    0.000000    0.000000   -0.001092    0.000000   -203.600000
W         4.747500      7.912500      7.912500    0.000000    0.000000    0.000000   -0.001092   -203.600000
W         6.330000      0.000000      0.000000    0.000000    0.001092    0.000000    0.000000   -203.600000
W         7.912500      1.582500      1.582500    0.000000    0.000000    0.001092    0.000000   -203.600000
W         6.330000      0.000000      3.165000    0.000000    0.000000    0.000000    0.001092   -203.600000
W         7.912500      1.582500      4.747500    0.000000   -0.001092    0.000000    0.000000   -203.600000
W         6.330000      0.000000      6.330000    0.000000    0.000000   -0.001092    0.000000   -203.600000
W         7.912500      1.582500      7.912500    0.000000    0.000000    0.000000   -0.001092   -203.600000
W         6.330000      3.165000      0.000000    0.000000    0.001092    0.000000    0.000000   -203.600000
W         7.912500      4.747500      1.582500    0.000000    0.000000    0.001092    0.000000   -203.600000
W         6.330000      3.165000      3.165000    0.000000    0.000000    0.000000    0.001092   -203.600000
W         7.912500      4.747500      4.747500    0.000000   -0.001092    0.000000    0.000000   -203.600000
W         6.330000      3.165000      6.330000    0.000000    0.000000   -0.001092    0.000000   -203.600000
W         7.912500      4.747500      7.912500    0.000000    0.000000    0.000000   -0.001092   -203.600000
W         6.330000      6.330000      0.000000    0.000000    0.001092    0.000000    0.000000   -203.600000
W         7.912500      7.912500      1.582500    0.000000    0.000000    0.001092    0.000000   -203.600000
W         6.330000      6.330000      3.165000    0.000000    0.000000    0.000000    0.001092   -203.600000
W         7.912500      7.912500      4.747500    0.000000   -0.001092    0.000000    0.000000   -203.600000
W         6.330000      6.330000      6.330000    0.000000    0.000000   -0.001092    0.000000   -203.600000
W         7.912500      7.912500      7.912500    0.000000    0.000000    0.000000   -0.001092   -203.600000
54
Tungsten supercell 3x3x3 | E = -10994.40 kcal/mol | T = 600.00 K properties="charge:velocity:energy" Lattice="9.495000 0.000000 0.000000  0.000000 9.495000 0.000000  0.000000 0.000000 9.495000" pbc="T T T"
W         0.000000      0.000000      0.000000    0.000000    0.001544    0.000000    0.000000   -203.600000
W         1.582500      1.582500      1.582500    0.000000    0.000000    0.001544    0.000000   -203.600000
W         0.000000      0.000000      3.165000    0.000000    0.000000    0.000000    0.001544   -203.600000
W         1.582500      1.582500      4.747500    0.000000   -0.001544    0.000000    0.000000   -203.600000
W         0.000000      0.000000      6.330000    0.000000    0.000000   -0.001544    0.000000   -203.600000
W         1.582500      1.582500      7.912500    0.000000    0.000000    0.000000   -0.001544   -203.600000
W         0.000000      3.165000      0.000000    0.000000    0.001544    0.000000    0.000000   -203.600000
W         1.582500      4.747500      1.582500    0.000000    0.000000    0.001544    0.000000   -203.600000
W         0.000000      3.165000      3.165000    0.000000    0.000000    0.000000    0.001544   -203.600000
W         1.582500      4.747500      4.747500    0.000000   -0.001544    0.000000    0.000000   -203.600000
W         0.000000      3.165000      6.330000    0.000000    0.000000   -0.001544    0.000000   -203.600000
W         1.582500      4.747500      7.912500    0.000000    0.000000    0.000000   -0.001544   -203.600000
W         0.000000      6.330000      0.000000    0.000000    0.001544    0.000000    0.000000   -203.600000
W         1.582500      7.912500      1.582500    0.000000    0.000000    0.001544    0.000000   -203.600000
W         0.000000      6.330000      3.165000    0.000000    0.000000    0.000000    0.001544   -203.600000
W         1.582500      7.912500      4.747500    0.000000   -0.001544    0.000000    0.000000   -203.600000
W         0.000000      6.330000      6.330000    0.000000    0.000000   -0.001544    0.000000   -203.600000
W         1.582500      7.912500      7.912500    0.000000    0.000000    0.000000   -0.001544   -203.600000
W         3.165000      0.000000      0.000000    0.000000    0.001544    0.000000    0.000000   -203.600000
W         4.747500      1.582500      1.582500    0.000000    0.000000    0.001544    0.000000   -203.600000
W         3.165000      0.000000      3.165000    0.000000    0.000000    0.000000    0.001544   -203.600000
W         4.747500      1.582500      4.747500    0.000000   -0.001544    0.000000    0.000000   -203.600000
W         3.165000      0.000000      6.330000    0.000000    0.000000   -0.001544    0.000000   -203.600000
W         4.747500      1.582500      7.912500    0.000000    0.000000    0.000000   -0.001544   -203.600000
W         3.165000      3.165000      0.000000    0.000000    0.001544    0.000000    0.000000   -203.600000
W         4.747500      4.747500      1.582500    0.000000    0.000000    0.001544    0.000000   -203.600000
W         3.165000      3.165000      3.165000    0.000000    0.000000    0.000000    0.001544   -203.600000
W         4.747500      4.747500      4.747500    0.000000   -0.001544    0.000000    0.000000   -203.600000
W         3.165000      3.165000      6.330000    0.000000    0.000000   -0.001544    0.000000   -203.600000
W         4.747500      4.747500      7.912500    0.000000    0.000000    0.000000   -0.001544   -203.600000
W         3.165000      6.330000      0.000000    0.000000    0.001544    0.000000    0.000000   -203.600000
W         4.747500      7.912500      1.582500    0.000000    0.000000    0.001544    0.000000   -203.600000
W         3.165000      6.330000      3.165000    0.000000    0.000000    0.000000    0.001544   -203.600000
W         4.747500      7.912500      4.747500    0.000000   -0.001544    0.000000    0.000000   -203.600000
W         3.165000      6.330000      6.330000    0.000000    0.000000   -0.001544    0.000000   -203.600000
W         4.747500      7.912500      7.912500    0.000000    0.000000    0.000000   -0.001544   -203.600000
W         6.330000      0.000000      0.000000    0.000000    0.001544    0.000000    0.000000   -203.600000
W         7.912500      1.582500      1.582500    0.000000    0.000000    0.001544    0.000000   -203.600000
W         6.330000      0.000000      3.165000    0.000000    0.000000    0.000000    0.001544   -203.600000
W         7.912500      1.582500      4.747500    0.000000   -0.001544    0.000000    0.000000   -203.600000
W         6.330000      0.000000      6.330000    0.000000    0.000000   -0.001544    0.000000   -203.600000
W         7.912500      1.582500      7.912500    0.000000    0.000000    0.000000   -0.001544   -203.600000
W         6.330000      3.165000      0.000000    0.000000    0.001544    0.000000    0.000000   -203.600000
W         7.912500      4.747500      1.582500    0.000000    0.000000    0.001544    0.000000   -203.600000
W         6.330000      3.165000      3.165000    0.000000    0.000000    0.000000    0.001544   -203.600000
W         7.912500      4.747500      4.747500    0.000000   -0.001544    0.000000    0.000000   -203.600000
W         6.330000      3.165000      6.330000    0.000000    0.000000   -0.001544    0.000000   -203.600000
W         7.912500      4.747500      7.912500    0.000000    0.000000    0.000000   -0.001544   -203.600000
W         6.330000      6.330000      0.000000    0.000000    0.001544    0.000000    0.000000   -203.600000
W         7.912500      7.912500      1.582500    0.000000    0.000000    0.001544    0.000000   -203.600000
W         6.330000      6.330000      3.165000    0.000000    0.000000    0.000000    0.001544   -203.600000
W         7.912500      7.912500      4.747500    0.000000   -0.001544    0.000000    0.000000   -203.600000
W         6.330000      6.330000      6.330000    0.000000    0.000000   -0.001544    0.000000   -203.600000
W         7.912500      7.912500      7.912500    0.000000    0.000000    0.000000   -0.001544   -203.600000
